
#(C) 2018 by FIZ Karlsruhe - Leibniz Institute for Information Infrastructure.  All rights reserved.
data_153028-ICSD
_database_code_ICSD 153028
_audit_creation_date 2006-10-01
_chemical_name_systematic 'Neodymium trioxotitanate (0.7/1)'
_chemical_formula_structural 'Nd (Ti O3)'
_chemical_formula_sum 'Nd O3 Ti1'
_chemical_name_structure_type (Li,La)TiO3
_exptl_crystal_density_diffrn 5.73
_publ_section_title

;
High-resolution EELS study of the vacancy-doped metal/insulator system, Nd1-x
Ti O3, x = 0 to 0.33
;
loop_
_citation_id
_citation_journal_full
_citation_year
_citation_journal_volume
_citation_page_first
_citation_page_last
_citation_journal_id_ASTM
primary 'Journal of Solid State Chemistry' 2005 178 1008 1016 JSSCBI
loop_
_publ_author_name
'Sefat, A.S.'
'Amow, G.'
'Wu Mengyue'
'Botton, G.A.'
'Greedan, J.E.'
_cell_length_a 7.696(2)
_cell_length_b 7.670(3)
_cell_length_c 7.731(2)
_cell_angle_alpha 90.
_cell_angle_beta 90.
_cell_angle_gamma 90.
_cell_volume 456.35
_cell_formula_units_Z 8
_symmetry_space_group_name_H-M 'C m m m'
_symmetry_Int_Tables_number 65
_refine_ls_R_factor_all 0.0596
loop_
_symmetry_equiv_pos_site_id
_symmetry_equiv_pos_as_xyz
1 'x, -y, z'
2 '-x, y, z'
3 'x, y, -z'
4 '-x, -y, -z'
5 '-x, y, -z'
6 'x, -y, -z'
7 '-x, -y, z'
8 'x, y, z'
9 'x+1/2, -y+1/2, z'
10 '-x+1/2, y+1/2, z'
11 'x+1/2, y+1/2, -z'
12 '-x+1/2, -y+1/2, -z'
13 '-x+1/2, y+1/2, -z'
14 'x+1/2, -y+1/2, -z'
15 '-x+1/2, -y+1/2, z'
16 'x+1/2, y+1/2, z'
loop_
_atom_type_symbol
_atom_type_oxidation_number
Nd3+ 3
Ti3+ 3.9
O2- -2
loop_
_atom_site_label
_atom_site_type_symbol
_atom_site_symmetry_multiplicity
_atom_site_Wyckoff_symbol
_atom_site_fract_x
_atom_site_fract_y
_atom_site_fract_z
_atom_site_B_iso_or_equiv
_atom_site_occupancy
_atom_site_attached_hydrogens
Nd1 Nd3+ 4 g 0.262(2) 0 0 0.51 0.98(2) 0
Nd2 Nd3+ 4 h 0.259(3) 0 0.5 0.52 0.42(2) 0
Ti1 Ti3+ 8 n 0 0.240(2) 0.259(2) 0.28(14) 1. 0
O1 O2- 4 i 0 0.276(2) 0 0.44(19) 1. 0
O2 O2- 4 j 0 0.194(2) 0.5 0.54(24) 1. 0
O3 O2- 4 k 0 0 0.200(2) 2.63(43) 1. 0
O4 O2- 4 l 0 0.5 0.282(2) 0.71(22) 1. 0
O5 O2- 8 m 0.25 0.25 0.233(1) 2.19(20) 1. 0
#End of TTdata_153028-ICSD
