
#(C) 2018 by FIZ Karlsruhe - Leibniz Institute for Information Infrastructure.  All rights reserved.
data_80379-ICSD
_database_code_ICSD 80379
_audit_creation_date 1997-05-13
_chemical_name_systematic 'Strontium lanthanum titanium oxide (3/1.99/2/10)'
_chemical_formula_structural '(Sr3.006 La1.994) Ti2 O10'
_chemical_formula_sum 'La1.994 O10 Sr3.006 Ti2'
_exptl_crystal_density_diffrn 5.63
_publ_section_title

;
A new layered structure based on perovskite in the Sr O - La2 O3 - Ti O2
system
;
loop_
_citation_id
_citation_journal_full
_citation_year
_citation_journal_volume
_citation_page_first
_citation_page_last
_citation_journal_id_ASTM
primary 'Journal of Solid State Chemistry' 1995 119 412 419 JSSCBI
loop_
_publ_author_name
'Bowden, M.E.'
'Jefferson, D.A.'
'Brown, I.W.M.'
_cell_length_a 6.9214(4)
_cell_length_b 5.5294(3)
_cell_length_c 12.3048(8)
_cell_angle_alpha 90.
_cell_angle_beta 85.439(4)
_cell_angle_gamma 90.
_cell_volume 469.43
_cell_formula_units_Z 2
_symmetry_space_group_name_H-M 'P 1 21/m 1'
_symmetry_Int_Tables_number 11
_refine_ls_R_factor_all 0.042
loop_
_symmetry_equiv_pos_site_id
_symmetry_equiv_pos_as_xyz
1 'x, -y+1/2, z'
2 '-x, -y, -z'
3 '-x, y+1/2, -z'
4 'x, y, z'
loop_
_atom_type_symbol
_atom_type_oxidation_number
Ti4+ 4
Sr2+ 2
La3+ 3
Sr2+ 2
La3+ 3
Sr2+ 2
La3+ 3
Sr2+ 2
La3+ 3
Sr2+ 2
La3+ 3
O2- -2
loop_
_atom_site_label
_atom_site_type_symbol
_atom_site_symmetry_multiplicity
_atom_site_Wyckoff_symbol
_atom_site_fract_x
_atom_site_fract_y
_atom_site_fract_z
_atom_site_B_iso_or_equiv
_atom_site_occupancy
_atom_site_attached_hydrogens
Ti1 Ti4+ 2 e 0.060(4) 0.75 0.1036(19) 0.2(3) 1. 0
Ti2 Ti4+ 2 e 0.174(4) 0.25 0.3171(19) 0.2(3) 1. 0
Sr1 Sr2+ 2 e 0.3161(25) 0.25 0.0517(11) 0.20(11) 0.84(2) 0
La1 La3+ 2 e 0.3161(25) 0.25 0.0517(11) 0.20(11) 0.16(2) 0
Sr2 Sr2+ 2 e 0.4371(17) 0.75 0.2498(11) 0.20(11) 0.442(14) 0
La2 La3+ 2 e 0.4371(17) 0.75 0.2498(11) 0.20(11) 0.558(14) 0
Sr3 Sr2+ 2 e 0.8167(24) 0.25 0.1558(10) 0.20(11) 0.84(2) 0
La3 La3+ 2 e 0.8167(24) 0.25 0.1558(10) 0.20(11) 0.16(2) 0
Sr4 Sr2+ 2 e -.0473(20) 0.75 0.3915(11) 0.20(11) 0.442(14) 0
La4 La3+ 2 e -.0473(20) 0.75 0.3915(11) 0.20(11) 0.558(14) 0
Sr5 Sr2+ 2 e 0.4113(15) 0.75 0.5624(9) 0.20(11) 0.442(14) 0
La5 La3+ 2 e 0.4113(15) 0.75 0.5624(9) 0.20(11) 0.558(14) 0
O1 O2- 2 a 0 0 0 1.7(3) 1. 0
O2 O2- 4 f 0.119 0 0.207 1.7(3) 1. 0
O3 O2- 4 f 0.268 0 0.416 1.7(3) 1. 0
O4 O2- 2 e 0.343 0.75 0.055 1.7(3) 1. 0
O5 O2- 2 e 0.433 0.25 0.231 1.7(3) 1. 0
O6 O2- 2 e 0.777 0.75 0.153 1.7(3) 1. 0
O7 O2- 2 e -.084 0.25 0.403 1.7(3) 1. 0
O8 O2- 2 e 0.368(11) 0.25 0.628(6) 1.7(3) 1. 0
#End of TTdata_80379-ICSD