
#(C) 2018 by FIZ Karlsruhe - Leibniz Institute for Information Infrastructure.  All rights reserved.
data_62943-ICSD
_database_code_ICSD 62943
_audit_creation_date 1988-12-19
_audit_update_record 2008-02-01
_chemical_name_systematic 'Yttrium barium copper oxide (1/2/3/6.85)'
_chemical_formula_structural 'Y Ba2 Cu3 O6.85'
_chemical_formula_sum 'Ba2 Cu3 O6.85 Y1'
_chemical_name_structure_type YBa2Cu3O6+x(orh)
_exptl_crystal_density_diffrn 6.37
_publ_section_title
'Structure and crystal chemistry of the high Tc superconductor Y Ba2 Cu3 O7-x'
loop_
_citation_id
_citation_journal_full
_citation_year
_citation_journal_volume
_citation_page_first
_citation_page_last
_citation_journal_id_ASTM
primary 'Nature (London, United Kingdom)' 1987 327 310 312 NATUAS
loop_
_publ_author_name
'David, W.I.F.'
'Harrison, W.T.A.'
'Gunn, J.M.F.'
'Moze, O.'
'Soper, A.K.'
'Day, P.'
'Jorgensen, J.D.'
'Hinks, D.G.'
'Beno, M.A.'
'Soderholm, L.'
'Capone, D.W.II.'
'Schuller, I.K.'
'Segre, C.U.'
'Zhang, K.'
'Grace, J.D.'
_cell_length_a 3.8187(2)
_cell_length_b 3.8833(2)
_cell_length_c 11.6687(6)
_cell_angle_alpha 90.
_cell_angle_beta 90.
_cell_angle_gamma 90.
_cell_volume 173.04
_cell_formula_units_Z 1
_symmetry_space_group_name_H-M 'P m m m'
_symmetry_Int_Tables_number 47
loop_
_symmetry_equiv_pos_site_id
_symmetry_equiv_pos_as_xyz
1 'x, -y, z'
2 '-x, y, z'
3 'x, y, -z'
4 '-x, -y, -z'
5 '-x, y, -z'
6 'x, -y, -z'
7 '-x, -y, z'
8 'x, y, z'
loop_
_atom_type_symbol
_atom_type_oxidation_number
Y3+ 3
Ba2+ 2
Cu2+ 2
O1- -1.9
loop_
_atom_site_label
_atom_site_type_symbol
_atom_site_symmetry_multiplicity
_atom_site_Wyckoff_symbol
_atom_site_fract_x
_atom_site_fract_y
_atom_site_fract_z
_atom_site_B_iso_or_equiv
_atom_site_occupancy
_atom_site_attached_hydrogens
Y1 Y3+ 1 h 0.5 0.5 0.5 0.9(1) 1. 0
Ba1 Ba2+ 2 t 0.5 0.5 0.1844(5) 0.8(1) 1. 0
Cu1 Cu2+ 1 a 0 0 0 0.9(1) 1. 0
Cu2 Cu2+ 2 q 0 0 0.3554(3) 0.6(1) 1. 0
O1 O1- 1 e 0 0.5 0 . 1. 0
O2 O1- 2 s 0.5 0 0.3788(5) 0.3(4) 0.92(3) 0
O3 O1- 2 r 0 0.5 0.3771(5) 0.6(1) 1. 0
O4 O1- 2 q 0 0 0.1579(3) 0.8(1) 1. 0
loop_
_atom_site_aniso_label
_atom_site_aniso_type_symbol
_atom_site_aniso_U_11
_atom_site_aniso_U_22
_atom_site_aniso_U_33
_atom_site_aniso_U_12
_atom_site_aniso_U_13
_atom_site_aniso_U_23
O1 O1- 4.8(6) 1.4(4) 2.5(6) 0 0 0
#End of TTdata_62943-ICSD